# vtk DataFile Version 3.0
#This file was generated by the deal.II library on 2016/3/21 at 16:35:45
ASCII
DATASET UNSTRUCTURED_GRID

POINTS 144 double
-2 -2 0
-1.5 -2 0
-1 -2 0
-2 -1.5 0
-1.5 -1.5 0
-1 -1.5 0
-2 -1 0
-1.5 -1 0
-1 -1 0
-1 -2 0
-0.5 -2 0
0 -2 0
-1 -1.5 0
-0.5 -1.5 0
0 -1.5 0
-1 -1 0
-0.5 -1 0
0 -1 0
-2 -1 0
-1.5 -1 0
-1 -1 0
-2 -0.5 0
-1.5 -0.5 0
-1 -0.5 0
-2 0 0
-1.5 0 0
-1 0 0
-1 -1 0
-0.5 -1 0
0 -1 0
-1 -0.5 0
-0.5 -0.5 0
0 -0.5 0
-1 0 0
-0.5 0 0
0 0 0
0 -2 0
0.5 -2 0
1 -2 0
0 -1.5 0
0.5 -1.5 0
1 -1.5 0
0 -1 0
0.5 -1 0
1 -1 0
1 -2 0
1.5 -2 0
2 -2 0
1 -1.5 0
1.5 -1.5 0
2 -1.5 0
1 -1 0
1.5 -1 0
2 -1 0
0 -1 0
0.5 -1 0
1 -1 0
0 -0.5 0
0.5 -0.5 0
1 -0.5 0
0 0 0
0.5 0 0
1 0 0
1 -1 0
1.5 -1 0
2 -1 0
1 -0.5 0
1.5 -0.5 0
2 -0.5 0
1 0 0
1.5 0 0
2 0 0
-2 0 0
-1.5 0 0
-1 0 0
-2 0.5 0
-1.5 0.5 0
-1 0.5 0
-2 1 0
-1.5 1 0
-1 1 0
-1 0 0
-0.5 0 0
0 0 0
-1 0.5 0
-0.5 0.5 0
0 0.5 0
-1 1 0
-0.5 1 0
0 1 0
-2 1 0
-1.5 1 0
-1 1 0
-2 1.5 0
-1.5 1.5 0
-1 1.5 0
-2 2 0
-1.5 2 0
-1 2 0
-1 1 0
-0.5 1 0
0 1 0
-1 1.5 0
-0.5 1.5 0
0 1.5 0
-1 2 0
-0.5 2 0
0 2 0
0 0 0
0.5 0 0
1 0 0
0 0.5 0
0.5 0.5 0
1 0.5 0
0 1 0
0.5 1 0
1 1 0
1 0 0
1.5 0 0
2 0 0
1 0.5 0
1.5 0.5 0
2 0.5 0
1 1 0
1.5 1 0
2 1 0
0 1 0
0.5 1 0
1 1 0
0 1.5 0
0.5 1.5 0
1 1.5 0
0 2 0
0.5 2 0
1 2 0
1 1 0
1.5 1 0
2 1 0
1 1.5 0
1.5 1.5 0
2 1.5 0
1 2 0
1.5 2 0
2 2 0

CELLS 64 320
4	0	1	4	3
4	1	2	5	4
4	3	4	7	6
4	4	5	8	7
4	9	10	13	12
4	10	11	14	13
4	12	13	16	15
4	13	14	17	16
4	18	19	22	21
4	19	20	23	22
4	21	22	25	24
4	22	23	26	25
4	27	28	31	30
4	28	29	32	31
4	30	31	34	33
4	31	32	35	34
4	36	37	40	39
4	37	38	41	40
4	39	40	43	42
4	40	41	44	43
4	45	46	49	48
4	46	47	50	49
4	48	49	52	51
4	49	50	53	52
4	54	55	58	57
4	55	56	59	58
4	57	58	61	60
4	58	59	62	61
4	63	64	67	66
4	64	65	68	67
4	66	67	70	69
4	67	68	71	70
4	72	73	76	75
4	73	74	77	76
4	75	76	79	78
4	76	77	80	79
4	81	82	85	84
4	82	83	86	85
4	84	85	88	87
4	85	86	89	88
4	90	91	94	93
4	91	92	95	94
4	93	94	97	96
4	94	95	98	97
4	99	100	103	102
4	100	101	104	103
4	102	103	106	105
4	103	104	107	106
4	108	109	112	111
4	109	110	113	112
4	111	112	115	114
4	112	113	116	115
4	117	118	121	120
4	118	119	122	121
4	120	121	124	123
4	121	122	125	124
4	126	127	130	129
4	127	128	131	130
4	129	130	133	132
4	130	131	134	133
4	135	136	139	138
4	136	137	140	139
4	138	139	142	141
4	139	140	143	142

CELL_TYPES 64
 9 9 9 9 9 9 9 9 9 9 9 9 9 9 9 9 9 9 9 9 9 9 9 9 9 9 9 9 9 9 9 9 9 9 9 9 9 9 9 9 9 9 9 9 9 9 9 9 9 9 9 9 9 9 9 9 9 9 9 9 9 9 9 9
POINT_DATA 144
SCALARS FCM_L2error_solution double 1
LOOKUP_TABLE default
0 0 0 0 0 0 0 0 0 0 0 0 0 0 0 0 0 0 0 0 0 0 0 0 0 0 0 1.88241e-15 1.88241e-15 1.88241e-15 1.88241e-15 1.88241e-15 1.88241e-15 1.88241e-15 1.88241e-15 1.88241e-15 0 0 0 0 0 0 0 0 0 0 0 0 0 0 0 0 0 0 2.15789e-15 2.15789e-15 2.15789e-15 2.15789e-15 2.15789e-15 2.15789e-15 2.15789e-15 2.15789e-15 2.15789e-15 0 0 0 0 0 0 0 0 0 0 0 0 0 0 0 0 0 0 1.86232e-15 1.86232e-15 1.86232e-15 1.86232e-15 1.86232e-15 1.86232e-15 1.86232e-15 1.86232e-15 1.86232e-15 0 0 0 0 0 0 0 0 0 0 0 0 0 0 0 0 0 0 2.17822e-15 2.17822e-15 2.17822e-15 2.17822e-15 2.17822e-15 2.17822e-15 2.17822e-15 2.17822e-15 2.17822e-15 0 0 0 0 0 0 0 0 0 0 0 0 0 0 0 0 0 0 0 0 0 0 0 0 0 0 0 
