# vtk DataFile Version 3.0
#This file was generated by the deal.II library on 2015/10/9 at 11:52:29
ASCII
DATASET UNSTRUCTURED_GRID

POINTS 64 double
-2 -2 0
-1 -2 0
-2 -1 0
-1 -1 0
-1 -2 0
0 -2 0
-1 -1 0
0 -1 0
-2 -1 0
-1 -1 0
-2 0 0
-1 0 0
-1 -1 0
0 -1 0
-1 0 0
0 0 0
0 -2 0
1 -2 0
0 -1 0
1 -1 0
1 -2 0
2 -2 0
1 -1 0
2 -1 0
0 -1 0
1 -1 0
0 0 0
1 0 0
1 -1 0
2 -1 0
1 0 0
2 0 0
-2 0 0
-1 0 0
-2 1 0
-1 1 0
-1 0 0
0 0 0
-1 1 0
0 1 0
-2 1 0
-1 1 0
-2 2 0
-1 2 0
-1 1 0
0 1 0
-1 2 0
0 2 0
0 0 0
1 0 0
0 1 0
1 1 0
1 0 0
2 0 0
1 1 0
2 1 0
0 1 0
1 1 0
0 2 0
1 2 0
1 1 0
2 1 0
1 2 0
2 2 0

CELLS 16 80
4	0	1	3	2
4	4	5	7	6
4	8	9	11	10
4	12	13	15	14
4	16	17	19	18
4	20	21	23	22
4	24	25	27	26
4	28	29	31	30
4	32	33	35	34
4	36	37	39	38
4	40	41	43	42
4	44	45	47	46
4	48	49	51	50
4	52	53	55	54
4	56	57	59	58
4	60	61	63	62

CELL_TYPES 16
 9 9 9 9 9 9 9 9 9 9 9 9 9 9 9 9
POINT_DATA 64
SCALARS solution double 1
LOOKUP_TABLE default
0 0 0 5.30688e-18 0 0 5.30688e-18 8.14461e-18 0 5.30688e-18 0 9.44968e-18 5.30688e-18 8.14461e-18 9.44968e-18 7.42118e-18 0 0 8.14461e-18 8.79513e-18 0 0 8.79513e-18 0 8.14461e-18 8.79513e-18 7.42118e-18 -2.038e-17 8.79513e-18 0 -2.038e-17 0 0 9.44968e-18 0 1.66739e-17 9.44968e-18 7.42118e-18 1.66739e-17 1.32134e-17 0 1.66739e-17 0 0 1.66739e-17 1.32134e-17 0 0 7.42118e-18 -2.038e-17 1.32134e-17 2.08485e-17 -2.038e-17 0 2.08485e-17 0 1.32134e-17 2.08485e-17 0 0 2.08485e-17 0 0 0 
